<VTKFile type="UnstructuredGrid" version="0.1"> 
<UnstructuredGrid> 
<Piece NumberOfPoints="2048" NumberOfCells="256"> 
<Points> 
<DataArray  type="Float64"  NumberOfComponents="3" format="ascii" >
0.00000 0.00000 0.00000
48.0000 44.0000 0.00000
48.0000 60.0000 0.00000
0.00000 44.0000 0.00000
0.00000 0.00000 5.00000
48.0000 44.0000 5.00000
48.0000 60.0000 5.00000
0.00000 44.0000 5.00000
3.00000 2.75000 0.00000
6.00000 5.50000 0.00000
9.00000 8.25000 0.00000
12.0000 11.0000 0.00000
15.0000 13.7500 0.00000
18.0000 16.5000 0.00000
21.0000 19.2500 0.00000
24.0000 22.0000 0.00000
27.0000 24.7500 0.00000
30.0000 27.5000 0.00000
33.0000 30.2500 0.00000
36.0000 33.0000 0.00000
39.0000 35.7500 0.00000
42.0000 38.5000 0.00000
45.0000 41.2500 0.00000
48.0000 45.0000 0.00000
48.0000 46.0000 0.00000
48.0000 47.0000 0.00000
48.0000 48.0000 0.00000
48.0000 49.0000 0.00000
48.0000 50.0000 0.00000
48.0000 51.0000 0.00000
48.0000 52.0000 0.00000
48.0000 53.0000 0.00000
48.0000 54.0000 0.00000
48.0000 55.0000 0.00000
48.0000 56.0000 0.00000
48.0000 57.0000 0.00000
48.0000 58.0000 0.00000
48.0000 59.0000 0.00000
45.0000 59.0000 0.00000
42.0000 58.0000 0.00000
39.0000 57.0000 0.00000
36.0000 56.0000 0.00000
33.0000 55.0000 0.00000
30.0000 54.0000 0.00000
27.0000 53.0000 0.00000
24.0000 52.0000 0.00000
21.0000 51.0000 0.00000
18.0000 50.0000 0.00000
15.0000 49.0000 0.00000
12.0000 48.0000 0.00000
9.00000 47.0000 0.00000
6.00000 46.0000 0.00000
3.00000 45.0000 0.00000
0.00000 41.2500 0.00000
0.00000 38.5000 0.00000
0.00000 35.7500 0.00000
0.00000 33.0000 0.00000
0.00000 30.2500 0.00000
0.00000 27.5000 0.00000
0.00000 24.7500 0.00000
0.00000 22.0000 0.00000
0.00000 19.2500 0.00000
0.00000 16.5000 0.00000
0.00000 13.7500 0.00000
0.00000 11.0000 0.00000
0.00000 8.25000 0.00000
0.00000 5.50000 0.00000
0.00000 2.75000 0.00000
3.00000 2.75000 5.00000
6.00000 5.50000 5.00000
9.00000 8.25000 5.00000
12.0000 11.0000 5.00000
15.0000 13.7500 5.00000
18.0000 16.5000 5.00000
21.0000 19.2500 5.00000
24.0000 22.0000 5.00000
27.0000 24.7500 5.00000
30.0000 27.5000 5.00000
33.0000 30.2500 5.00000
36.0000 33.0000 5.00000
39.0000 35.7500 5.00000
42.0000 38.5000 5.00000
45.0000 41.2500 5.00000
48.0000 45.0000 5.00000
48.0000 46.0000 5.00000
48.0000 47.0000 5.00000
48.0000 48.0000 5.00000
48.0000 49.0000 5.00000
48.0000 50.0000 5.00000
48.0000 51.0000 5.00000
48.0000 52.0000 5.00000
48.0000 53.0000 5.00000
48.0000 54.0000 5.00000
48.0000 55.0000 5.00000
48.0000 56.0000 5.00000
48.0000 57.0000 5.00000
48.0000 58.0000 5.00000
48.0000 59.0000 5.00000
45.0000 59.0000 5.00000
42.0000 58.0000 5.00000
39.0000 57.0000 5.00000
36.0000 56.0000 5.00000
33.0000 55.0000 5.00000
30.0000 54.0000 5.00000
27.0000 53.0000 5.00000
24.0000 52.0000 5.00000
21.0000 51.0000 5.00000
18.0000 50.0000 5.00000
15.0000 49.0000 5.00000
12.0000 48.0000 5.00000
9.00000 47.0000 5.00000
6.00000 46.0000 5.00000
3.00000 45.0000 5.00000
0.00000 41.2500 5.00000
0.00000 38.5000 5.00000
0.00000 35.7500 5.00000
0.00000 33.0000 5.00000
0.00000 30.2500 5.00000
0.00000 27.5000 5.00000
0.00000 24.7500 5.00000
0.00000 22.0000 5.00000
0.00000 19.2500 5.00000
0.00000 16.5000 5.00000
0.00000 13.7500 5.00000
0.00000 11.0000 5.00000
0.00000 8.25000 5.00000
0.00000 5.50000 5.00000
0.00000 2.75000 5.00000
3.00000 5.39062 0.00000
3.00000 8.03125 0.00000
3.00000 10.6719 0.00000
3.00000 13.3125 0.00000
3.00000 15.9531 0.00000
3.00000 18.5938 0.00000
3.00000 21.2344 0.00000
3.00000 23.8750 0.00000
3.00000 26.5156 0.00000
3.00000 29.1563 0.00000
3.00000 31.7969 0.00000
3.00000 34.4375 0.00000
3.00000 37.0781 0.00000
3.00000 39.7187 0.00000
3.00000 42.3594 0.00000
6.00000 8.03125 0.00000
6.00000 10.5625 0.00000
6.00000 13.0938 0.00000
6.00000 15.6250 0.00000
6.00000 18.1563 0.00000
6.00000 20.6875 0.00000
6.00000 23.2188 0.00000
6.00000 25.7500 0.00000
6.00000 28.2813 0.00000
6.00000 30.8125 0.00000
6.00000 33.3437 0.00000
6.00000 35.8750 0.00000
6.00000 38.4062 0.00000
6.00000 40.9375 0.00000
6.00000 43.4687 0.00000
9.00000 10.6719 0.00000
9.00000 13.0937 0.00000
9.00000 15.5156 0.00000
9.00000 17.9375 0.00000
9.00000 20.3594 0.00000
9.00000 22.7813 0.00000
9.00000 25.2031 0.00000
9.00000 27.6250 0.00000
9.00000 30.0469 0.00000
9.00000 32.4687 0.00000
9.00000 34.8906 0.00000
9.00000 37.3125 0.00000
9.00000 39.7344 0.00000
9.00000 42.1562 0.00000
9.00000 44.5781 0.00000
12.0000 13.3125 0.00000
12.0000 15.6250 0.00000
12.0000 17.9375 0.00000
12.0000 20.2500 0.00000
12.0000 22.5625 0.00000
12.0000 24.8750 0.00000
12.0000 27.1875 0.00000
12.0000 29.5000 0.00000
12.0000 31.8125 0.00000
12.0000 34.1250 0.00000
12.0000 36.4375 0.00000
12.0000 38.7500 0.00000
12.0000 41.0625 0.00000
12.0000 43.3750 0.00000
12.0000 45.6875 0.00000
15.0000 15.9531 0.00000
15.0000 18.1562 0.00000
15.0000 20.3594 0.00000
15.0000 22.5625 0.00000
15.0000 24.7656 0.00000
15.0000 26.9687 0.00000
15.0000 29.1719 0.00000
15.0000 31.3750 0.00000
15.0000 33.5781 0.00000
15.0000 35.7812 0.00000
15.0000 37.9844 0.00000
15.0000 40.1875 0.00000
15.0000 42.3906 0.00000
15.0000 44.5937 0.00000
15.0000 46.7969 0.00000
18.0000 18.5937 0.00000
18.0000 20.6875 0.00000
18.0000 22.7812 0.00000
18.0000 24.8750 0.00000
18.0000 26.9687 0.00000
18.0000 29.0625 0.00000
18.0000 31.1562 0.00000
18.0000 33.2500 0.00000
18.0000 35.3437 0.00000
18.0000 37.4375 0.00000
18.0000 39.5312 0.00000
18.0000 41.6250 0.00000
18.0000 43.7187 0.00000
18.0000 45.8125 0.00000
18.0000 47.9063 0.00000
21.0000 21.2344 0.00000
21.0000 23.2187 0.00000
21.0000 25.2031 0.00000
21.0000 27.1875 0.00000
21.0000 29.1719 0.00000
21.0000 31.1562 0.00000
21.0000 33.1406 0.00000
21.0000 35.1250 0.00000
21.0000 37.1094 0.00000
21.0000 39.0937 0.00000
21.0000 41.0781 0.00000
21.0000 43.0625 0.00000
21.0000 45.0469 0.00000
21.0000 47.0313 0.00000
21.0000 49.0156 0.00000
24.0000 23.8750 0.00000
24.0000 25.7500 0.00000
24.0000 27.6250 0.00000
24.0000 29.5000 0.00000
24.0000 31.3750 0.00000
24.0000 33.2500 0.00000
24.0000 35.1250 0.00000
24.0000 37.0000 0.00000
24.0000 38.8750 0.00000
24.0000 40.7500 0.00000
24.0000 42.6250 0.00000
24.0000 44.5000 0.00000
24.0000 46.3750 0.00000
24.0000 48.2500 0.00000
24.0000 50.1250 0.00000
27.0000 26.5156 0.00000
27.0000 28.2812 0.00000
27.0000 30.0469 0.00000
27.0000 31.8125 0.00000
27.0000 33.5781 0.00000
27.0000 35.3437 0.00000
27.0000 37.1094 0.00000
27.0000 38.8750 0.00000
27.0000 40.6406 0.00000
27.0000 42.4062 0.00000
27.0000 44.1719 0.00000
27.0000 45.9375 0.00000
27.0000 47.7031 0.00000
27.0000 49.4688 0.00000
27.0000 51.2344 0.00000
30.0000 29.1562 0.00000
30.0000 30.8125 0.00000
30.0000 32.4687 0.00000
30.0000 34.1250 0.00000
30.0000 35.7812 0.00000
30.0000 37.4375 0.00000
30.0000 39.0937 0.00000
30.0000 40.7500 0.00000
30.0000 42.4062 0.00000
30.0000 44.0625 0.00000
30.0000 45.7187 0.00000
30.0000 47.3750 0.00000
30.0000 49.0312 0.00000
30.0000 50.6875 0.00000
30.0000 52.3438 0.00000
33.0000 31.7969 0.00000
33.0000 33.3437 0.00000
33.0000 34.8906 0.00000
33.0000 36.4375 0.00000
33.0000 37.9844 0.00000
33.0000 39.5312 0.00000
33.0000 41.0781 0.00000
33.0000 42.6250 0.00000
33.0000 44.1719 0.00000
33.0000 45.7187 0.00000
33.0000 47.2656 0.00000
33.0000 48.8125 0.00000
33.0000 50.3594 0.00000
33.0000 51.9062 0.00000
33.0000 53.4531 0.00000
36.0000 34.4375 0.00000
36.0000 35.8750 0.00000
36.0000 37.3125 0.00000
36.0000 38.7500 0.00000
36.0000 40.1875 0.00000
36.0000 41.6250 0.00000
36.0000 43.0625 0.00000
36.0000 44.5000 0.00000
36.0000 45.9375 0.00000
36.0000 47.3750 0.00000
36.0000 48.8125 0.00000
36.0000 50.2500 0.00000
36.0000 51.6875 0.00000
36.0000 53.1250 0.00000
36.0000 54.5625 0.00000
39.0000 37.0781 0.00000
39.0000 38.4062 0.00000
39.0000 39.7344 0.00000
39.0000 41.0625 0.00000
39.0000 42.3906 0.00000
39.0000 43.7187 0.00000
39.0000 45.0469 0.00000
39.0000 46.3750 0.00000
39.0000 47.7031 0.00000
39.0000 49.0312 0.00000
39.0000 50.3594 0.00000
39.0000 51.6875 0.00000
39.0000 53.0156 0.00000
39.0000 54.3438 0.00000
39.0000 55.6719 0.00000
42.0000 39.7187 0.00000
42.0000 40.9375 0.00000
42.0000 42.1562 0.00000
42.0000 43.3750 0.00000
42.0000 44.5937 0.00000
42.0000 45.8125 0.00000
42.0000 47.0312 0.00000
42.0000 48.2500 0.00000
42.0000 49.4687 0.00000
42.0000 50.6875 0.00000
42.0000 51.9062 0.00000
42.0000 53.1250 0.00000
42.0000 54.3438 0.00000
42.0000 55.5625 0.00000
42.0000 56.7813 0.00000
45.0000 42.3594 0.00000
45.0000 43.4687 0.00000
45.0000 44.5781 0.00000
45.0000 45.6875 0.00000
45.0000 46.7969 0.00000
45.0000 47.9062 0.00000
45.0000 49.0156 0.00000
45.0000 50.1250 0.00000
45.0000 51.2344 0.00000
45.0000 52.3438 0.00000
45.0000 53.4531 0.00000
45.0000 54.5625 0.00000
45.0000 55.6719 0.00000
45.0000 56.7813 0.00000
45.0000 57.8906 0.00000
3.00000 5.39062 5.00000
3.00000 8.03125 5.00000
3.00000 10.6719 5.00000
3.00000 13.3125 5.00000
3.00000 15.9531 5.00000
3.00000 18.5938 5.00000
3.00000 21.2344 5.00000
3.00000 23.8750 5.00000
3.00000 26.5156 5.00000
3.00000 29.1563 5.00000
3.00000 31.7969 5.00000
3.00000 34.4375 5.00000
3.00000 37.0781 5.00000
3.00000 39.7187 5.00000
3.00000 42.3594 5.00000
6.00000 8.03125 5.00000
6.00000 10.5625 5.00000
6.00000 13.0938 5.00000
6.00000 15.6250 5.00000
6.00000 18.1563 5.00000
6.00000 20.6875 5.00000
6.00000 23.2188 5.00000
6.00000 25.7500 5.00000
6.00000 28.2813 5.00000
6.00000 30.8125 5.00000
6.00000 33.3437 5.00000
6.00000 35.8750 5.00000
6.00000 38.4062 5.00000
6.00000 40.9375 5.00000
6.00000 43.4687 5.00000
9.00000 10.6719 5.00000
9.00000 13.0937 5.00000
9.00000 15.5156 5.00000
9.00000 17.9375 5.00000
9.00000 20.3594 5.00000
9.00000 22.7813 5.00000
9.00000 25.2031 5.00000
9.00000 27.6250 5.00000
9.00000 30.0469 5.00000
9.00000 32.4687 5.00000
9.00000 34.8906 5.00000
9.00000 37.3125 5.00000
9.00000 39.7344 5.00000
9.00000 42.1562 5.00000
9.00000 44.5781 5.00000
12.0000 13.3125 5.00000
12.0000 15.6250 5.00000
12.0000 17.9375 5.00000
12.0000 20.2500 5.00000
12.0000 22.5625 5.00000
12.0000 24.8750 5.00000
12.0000 27.1875 5.00000
12.0000 29.5000 5.00000
12.0000 31.8125 5.00000
12.0000 34.1250 5.00000
[...]
<PointData  Vectors="sigma"> 
 <DataArray  type="Float64"  Name="U" NumberOfComponents="3" format="ascii"> 
  0.00000000     0.00000000   0.00000
 -1.56894540     7.81250000   0.00000
 -5.90492620     7.81250000   0.00000
  0.00000000     0.00000000   0.00000
  0.00000000     0.00000000   0.00000
 -1.56894540     7.81250000   0.00000
 -5.90492620     7.81250000   0.00000
  0.00000000     0.00000000   0.00000
  0.03650716     0.07620570   0.00000
  0.11044783     0.18329205   0.00000
  0.20861201     0.30716830   0.00000
  0.32592670     0.46095360   0.00000
  0.45085405     0.66063792   0.00000
  0.56815321     0.92031123   0.00000
  0.66126835     1.25031121   0.00000
  0.71441354     1.65692158   0.00000
  0.71392980     2.14308405   0.00000
  0.64878364     2.70959513   0.00000
  0.51027967     3.35623576   0.00000
  0.29130136     4.08247459   0.00000
 -0.01465710     4.88770361   0.00000
 -0.41481136     5.77195729   0.00000
 -0.92151091     6.73682563   0.00000
 -1.84161036     7.81250000   0.00000
 -2.10881581     7.81250000   0.00000
 -2.37020559     7.81250000   0.00000
 -2.62821950     7.81250000   0.00000
 -2.88482088     7.81250000   0.00000
 -3.14161560     7.81250000   0.00000
 -3.39992242     7.81250000   0.00000
 -3.66082472     7.81250000   0.00000
 -3.92520390     7.81250000   0.00000
 -4.19375918     7.81250000   0.00000
 -4.46701079     7.81250000   0.00000
 -4.74528469     7.81250000   0.00000
 -5.02867277     7.81250000   0.00000
 -5.31695746     7.81250000   0.00000
 -5.60946537     7.81250000   0.00000
 -5.59799469     6.92905429   0.00000
 -5.26385399     6.05470652   0.00000
 -4.89643582     5.21331542   0.00000
 -4.50286867     4.42586339   0.00000
 -4.09455289     3.70506494   0.00000
 -3.68222464     3.05633334   0.00000
 -3.27408863     2.48023194   0.00000
 -2.87564300     1.97456209   0.00000
 -2.49006659     1.53569821   0.00000
 -2.11859762     1.15935809   0.00000
 -1.76067528     0.84106859   0.00000
 -1.41372001     0.57651740   0.00000
 -1.07226898     0.36183183   0.00000
 -0.72394611     0.19357559   0.00000
 -0.34252150     0.07270093   0.00000
  0.00000000     0.00000000   0.00000
  0.00000000     0.00000000   0.00000
  0.00000000     0.00000000   0.00000
  0.00000000     0.00000000   0.00000
  0.00000000     0.00000000   0.00000
  0.00000000     0.00000000   0.00000
  0.00000000     0.00000000   0.00000
  0.00000000     0.00000000   0.00000
  0.00000000     0.00000000   0.00000
  0.00000000     0.00000000   0.00000
  0.00000000     0.00000000   0.00000
  0.00000000     0.00000000   0.00000
  0.00000000     0.00000000   0.00000
  0.00000000     0.00000000   0.00000
  0.00000000     0.00000000   0.00000
  0.03650716     0.07620570   0.00000
  0.11044783     0.18329205   0.00000
  0.20861201     0.30716830   0.00000
  0.32592670     0.46095360   0.00000
  0.45085405     0.66063792   0.00000
  0.56815321     0.92031123   0.00000
  0.66126835     1.25031121   0.00000
  0.71441354     1.65692158   0.00000
  0.71392980     2.14308405   0.00000
  0.64878364     2.70959513   0.00000
  0.51027967     3.35623576   0.00000
  0.29130136     4.08247459   0.00000
 -0.01465710     4.88770361   0.00000
 -0.41481136     5.77195729   0.00000
 -0.92151091     6.73682563   0.00000
 -1.84161036     7.81250000   0.00000
 -2.10881581     7.81250000   0.00000
 -2.37020559     7.81250000   0.00000
 -2.62821950     7.81250000   0.00000
 -2.88482088     7.81250000   0.00000
 -3.14161560     7.81250000   0.00000
 -3.39992242     7.81250000   0.00000
 -3.66082472     7.81250000   0.00000
 -3.92520390     7.81250000   0.00000
 -4.19375918     7.81250000   0.00000
 -4.46701079     7.81250000   0.00000
 -4.74528469     7.81250000   0.00000
 -5.02867277     7.81250000   0.00000
 -5.31695746     7.81250000   0.00000
 -5.60946537     7.81250000   0.00000
 -5.59799469     6.92905429   0.00000
 -5.26385399     6.05470652   0.00000
 -4.89643582     5.21331542   0.00000
 -4.50286867     4.42586339   0.00000
 -4.09455289     3.70506494   0.00000
 -3.68222464     3.05633334   0.00000
 -3.27408863     2.48023194   0.00000
 -2.87564300     1.97456209   0.00000
 -2.49006659     1.53569821   0.00000
 -2.11859762     1.15935809   0.00000
 -1.76067528     0.84106859   0.00000
 -1.41372001     0.57651740   0.00000
 -1.07226898     0.36183183   0.00000
 -0.72394611     0.19357559   0.00000
 -0.34252150     0.07270093   0.00000
  0.00000000     0.00000000   0.00000
  0.00000000     0.00000000   0.00000
  0.00000000     0.00000000   0.00000
  0.00000000     0.00000000   0.00000
  0.00000000     0.00000000   0.00000
  0.00000000     0.00000000   0.00000
  0.00000000     0.00000000   0.00000
  0.00000000     0.00000000   0.00000
  0.00000000     0.00000000   0.00000
  0.00000000     0.00000000   0.00000
  0.00000000     0.00000000   0.00000
  0.00000000     0.00000000   0.00000
  0.00000000     0.00000000   0.00000
  0.00000000     0.00000000   0.00000
  0.00000000     0.00000000   0.00000
  0.05195264     0.09204234   0.00000
  0.06230086     0.10021207   0.00000
  0.06911071     0.10295700   0.00000
  0.07229808     0.10162722   0.00000
  0.07167051     0.09707330   0.00000
  0.06715029     0.09004209   0.00000
  0.05872211     0.08119871   0.00000
  0.04638225     0.07114108   0.00000
  0.03009040     0.06042318   0.00000
  0.00971082     0.04958997   0.00000
 -0.01507548     0.03923929   0.00000
 -0.04496025     0.03014135   0.00000
 -0.08145419     0.02353796   0.00000
 -0.12820218     0.02202552   0.00000
 -0.19524116     0.03308721   0.00000
  0.13558152     0.20101056   0.00000
  0.15395184     0.21101384   0.00000
  0.16424135     0.21434023   0.00000
  0.16607150     0.21206913   0.00000
  0.15931593     0.20532203   0.00000
  0.14399661     0.19518754   0.00000
  0.12017125     0.18270479   0.00000
  0.08784373     0.16888684   0.00000
  0.04685363     0.15476490   0.00000
 -0.00324799     0.14147586   0.00000
 -0.06344201     0.13040100   0.00000
 -0.13568825     0.12341319   0.00000
 -0.22391292     0.12328196   0.00000
 -0.33632826     0.13417435   0.00000
 -0.49314396     0.15979649   0.00000
  0.23987434     0.32802675   0.00000
  0.25901918     0.34032556   0.00000
  0.26531173     0.34539212   0.00000
  0.25855420     0.34451263   0.00000
  0.23882928     0.33898318   0.00000
  0.20629335     0.33008496   0.00000
  0.16104456     0.31908805   0.00000
  0.10299562     0.30728158   0.00000
  0.03175216     0.29603210   0.00000
 -0.05358146     0.28685949   0.00000
 -0.15470847     0.28152268   0.00000
 -0.27461669     0.28207074   0.00000
 -0.41840291     0.29067012   0.00000
 -0.59446630     0.30860558   0.00000
 -0.81311013     0.33392852   0.00000
  0.35401835     0.48531794   0.00000
  0.36481201     0.50123903   0.00000
  0.35866672     0.50993948   0.00000
  0.33572607     0.51293868   0.00000
  0.29630251     0.51164885   0.00000
  0.24064147     0.50744320   0.00000
  0.16881142     0.50168047   0.00000
  0.08059780     0.49573133   0.00000
 -0.02462042     0.49100228   0.00000
 -0.14802246     0.48893942   0.00000
 -0.29153877     0.49097568   0.00000
 -0.45804946     0.49834903   0.00000
 -0.65141213     0.51167604   0.00000
 -0.87553665     0.53031310   0.00000
 -1.13112263     0.55235474   0.00000
  0.46557784     0.68853415   0.00000
  0.45905643     0.70886118   0.00000
  0.43270489     0.72246242   0.00000
  0.38689671     0.73092571   0.00000
  0.32208617     0.73565523   0.00000
  0.23854606     0.73797663   0.00000
  0.13629960     0.73916370   0.00000
  0.01507564     0.74044121   0.00000
 -0.12578122     0.74296747   0.00000
 -0.28734054     0.74778104   0.00000
 -0.47110257     0.75569600   0.00000
 -0.67882780     0.76713590   0.00000
 -0.91211443     0.78196602   0.00000
 -1.17136619     0.79952990   0.00000
 -1.45530559     0.81915838   0.00000
  0.56019900     0.95115534   0.00000
  0.52870845     0.97580195   0.00000
  0.47585158     0.99451522   0.00000
  0.40203483     1.00878219   0.00000
  0.30776474     1.01985521   0.00000
  0.19330596     1.02887759   0.00000
  0.05870846     1.03689769   0.00000
 -0.09624856     1.04485717   0.00000
 -0.27199515     1.05355646   0.00000
 -0.46918975     1.06360887   0.00000
 -0.68853885     1.07538066   0.00000
 -0.93064908     1.08895865   0.00000
 -1.19560670     1.10419088   0.00000
 -1.48284346     1.12086989   0.00000
 -1.79128526     1.13901402   0.00000
  0.62355388     1.28308795   0.00000
  0.56157152     1.31120138   0.00000
  0.47791422     1.33428725   0.00000
  0.37290261     1.35360129   0.00000
  0.24702016     1.37015902   0.00000
  0.10056334     1.38484905   0.00000
 -0.06636284     1.39845146   0.00000
 -0.25377388     1.41161778   0.00000
 -0.46179520     1.42485485   0.00000
 -0.69057201     1.43850609   0.00000
 -0.94021789     1.45275283   0.00000
 -1.21063090     1.46764345   0.00000
 -1.50147667     1.48317591   0.00000
 -1.81221474     1.49940893   0.00000
 -2.14226417     1.51662167   0.00000
  0.64266467     1.69042765   0.00000
  0.54711642     1.72071299   0.00000
  0.43057812     1.74684227   0.00000
  0.29321711     1.76980255   0.00000
  0.13549106     1.79035821   0.00000
 -0.04227194     1.80915434   0.00000
 -0.23983321     1.82673757   0.00000
 -0.45701311     1.84354733   0.00000
 -0.69364997     1.85990933   0.00000
 -0.94956199     1.87603806   0.00000
 -1.22451914     1.89205355   0.00000
 -1.51824754     1.90801905   0.00000
 -1.83046836     1.92399435   0.00000
 -2.16095182     1.94010743   0.00000
 -2.50965782     1.95667890   0.00000
  0.60663498     2.17616654   0.00000
  0.47680723     2.20723640   0.00000
  0.32734830     2.23493356   0.00000
  0.15830685     2.25999833   0.00000
 -0.02988295     2.28299195   0.00000
 -0.23684470     2.30437344   0.00000
 -0.46224601     2.32453088   0.00000
 -0.70572016     2.34376997   0.00000
 -0.96693015     2.36231489   0.00000
 -1.24552713     2.38030336   0.00000
 -1.54121975     2.39780099   0.00000
 -1.85376275     2.41482519   0.00000
 -2.18311758     2.43139242   0.00000
 -2.52945198     2.44757457   0.00000
 -2.89320824     2.46361193   0.00000
  0.50672182     2.74130051   0.00000
  0.34382394     2.77195301   0.00000
  0.16309521     2.79992189   0.00000
 -0.03554658     2.82577229   0.00000
 -0.25163868     2.84992463   0.00000
 -0.48479388     2.87272536   0.00000
 -0.73454299     2.89446802   0.00000
 -1.00043966     2.91538197   0.00000
 -1.28197251     2.93560256   0.00000
 -1.57876414     2.95517504   0.00000
 -1.89051415     2.97405874   0.00000
 -2.21721549     2.99216575   0.00000
 -2.55906156     3.00939327   0.00000
 -2.91664473     3.02569149   0.00000
 -3.29093410     3.04115839   0.00000
  0.33587382     3.38585686   0.00000
  0.14254309     3.41518276   0.00000
 -0.06665149     3.44246206   0.00000
 -0.29182047     3.46813725   0.00000
 -0.53254522     3.49256677   0.00000
 -0.78830607     3.51604972   0.00000
 -1.05851582     3.53883297   0.00000
 -1.34249541     3.56105185   0.00000
 -1.63965840     3.58271596   0.00000
 -1.94958414     3.60371737   0.00000
 -2.27218365     3.62386864   0.00000
 -2.60763520     3.64293570   0.00000
 -2.95650170     3.66068581   0.00000
 -3.31971035     3.67693305   0.00000
 -3.69875396     3.69161851   0.00000
  0.08804392     4.10949381   0.00000
 -0.13222845     4.13686186   0.00000
 -0.36634233     4.16278906   0.00000
 -0.61455533     4.18765671   0.00000
 -0.87626657     4.21186659   0.00000
 -1.15059239     4.23571000   0.00000
 -1.43656008     4.25931474   0.00000
 -1.73332075     4.28262472   0.00000
 -2.04029451     4.30543571   0.00000
 -2.35725083     4.32745282   0.00000
 -2.68433518     4.34834399   0.00000
 -3.02207176     4.36777933   0.00000
 -3.37135742     4.38545308   0.00000
 -3.73346838     4.40110235   0.00000
 -4.11015579     4.41453589   0.00000
 -0.24274389     4.91177103   0.00000
 -0.48607156     4.93670762   0.00000
 -0.74182420     4.96076056   0.00000
 -1.00958961     4.98454920   0.00000
 -1.28785180     5.00849232   0.00000
 -1.57509998     5.03261297   0.00000
 -1.87019619     5.05668151   0.00000
 -2.17240806     5.08032757   0.00000
 -2.48154538     5.10314801   0.00000
 -2.79781671     5.12476183   0.00000
 -3.12181115     5.14484019   0.00000
 -3.45434172     5.16310191   0.00000
 -3.79655595     5.17930412   0.00000
 -4.14986290     5.19321165   0.00000
 -4.51593821     5.20456993   0.00000
 -0.66385865     5.79244363   0.00000
 -0.92845756     5.81434232   0.00000
 -1.20271679     5.83684887   0.00000
 -1.48421582     5.86000252   0.00000
 -1.77078623     5.88340125   0.00000
 -2.06129730     5.90649593   0.00000
 -2.35529379     5.92877849   0.00000
 -2.65297765     5.94985536   0.00000
 -2.95483445     5.96944522   0.00000
 -3.26169240     5.98737609   0.00000
 -3.57442732     6.00354394   0.00000
 -3.89409903     6.01788717   0.00000
 -4.22173971     6.03033475   0.00000
 -4.55841894     6.04076448   0.00000
 -4.90538773     6.04894525   0.00000
 -1.19395807     6.75477871   0.00000
 -1.47470758     6.77586188   0.00000
 -1.75544888     6.79604070   0.00000
 -2.03552299     6.81479748   0.00000
 -2.31493801     6.83202842   0.00000
 -2.59434142     6.84764688   0.00000
 -2.87475264     6.86165884   0.00000
 -3.15721953     6.87412932   0.00000
 -3.44281260     6.88516166   0.00000
 -3.73253895     6.89487279   0.00000
 -4.02727981     6.90337459   0.00000
 -4.32786918     6.91075778   0.00000
 -4.63490814     6.91706936   0.00000
 -4.94883274     6.92228764   0.00000
 -5.26980822     6.92629638   0.00000
  0.05195264     0.09204234   0.00000
  0.06230086     0.10021207   0.00000
  0.06911071     0.10295700   0.00000
  0.07229808     0.10162722   0.00000
  0.07167051     0.09707330   0.00000
  0.06715029     0.09004209   0.00000
  0.05872211     0.08119871   0.00000
  0.04638225     0.07114108   0.00000
  0.03009040     0.06042318   0.00000
  0.00971082     0.04958997   0.00000
 -0.01507548     0.03923929   0.00000
 -0.04496025     0.03014135   0.00000
 -0.08145419     0.02353796   0.00000
 -0.12820218     0.02202552   0.00000
 -0.19524116     0.03308721   0.00000
  0.13558152     0.20101056   0.00000
  0.15395184     0.21101384   0.00000
  0.16424135     0.21434023   0.00000
  0.16607150     0.21206913   0.00000
  0.15931593     0.20532203   0.00000
  0.14399661     0.19518754   0.00000
  0.12017125     0.18270479   0.00000
  0.08784373     0.16888684   0.00000
  0.04685363     0.15476490   0.00000
 -0.00324799     0.14147586   0.00000
 -0.06344201     0.13040100   0.00000
 -0.13568825     0.12341319   0.00000
 -0.22391292     0.12328196   0.00000
 -0.33632826     0.13417435   0.00000
 -0.49314396     0.15979649   0.00000
  0.23987434     0.32802675   0.00000
  0.25901918     0.34032556   0.00000
  0.26531173     0.34539212   0.00000
  0.25855420     0.34451263   0.00000
  0.23882928     0.33898318   0.00000
  0.20629335     0.33008496   0.00000
  0.16104456     0.31908805   0.00000
  0.10299562     0.30728158   0.00000
  0.03175216     0.29603210   0.00000
 -0.05358146     0.28685949   0.00000
 -0.15470847     0.28152268   0.00000
 -0.27461669     0.28207074   0.00000
 -0.41840291     0.29067012   0.00000
 -0.59446630     0.30860558   0.00000
 -0.81311013     0.33392852   0.00000
  0.35401835     0.48531794   0.00000
  0.36481201     0.50123903   0.00000
  0.35866672     0.50993948   0.00000
  0.33572607     0.51293868   0.00000
  0.29630251     0.51164885   0.00000
  0.24064147     0.50744320   0.00000
  0.16881142     0.50168047   0.00000
  0.08059780     0.49573133   0.00000
 -0.02462042     0.49100228   0.00000
 -0.14802246     0.48893942   0.00000
 -0.29153877     0.49097568   0.00000
 -0.45804946     0.49834903   0.00000
 -0.65141213     0.51167604   0.00000
 -0.87553665     0.53031310   0.00000
 -1.13112263     0.55235474   0.00000
  0.46557784     0.68853415   0.00000
  0.45905643     0.70886118   0.00000
  0.43270489     0.72246242   0.00000
  0.38689671     0.73092571   0.00000
  0.32208617     0.73565523   0.00000
  0.23854606     0.73797663   0.00000
  0.13629960     0.73916370   0.00000
  0.01507564     0.74044121   0.00000
 -0.12578122     0.74296747   0.00000
 -0.28734054     0.74778104   0.00000
 -0.47110257     0.75569600   0.00000
 -0.67882780     0.76713590   0.00000
 -0.91211443     0.78196602   0.00000
 -1.17136619     0.79952990   0.00000
 -1.45530559     0.81915838   0.00000
  0.56019900     0.95115534   0.00000
  0.52870845     0.97580195   0.00000
  0.47585158     0.99451522   0.00000
  0.40203483     1.00878219   0.00000
  0.30776474     1.01985521   0.00000
  0.19330596     1.02887759   0.00000
  0.05870846     1.03689769   0.00000
 -0.09624856     1.04485717   0.00000
 -0.27199515     1.05355646   0.00000
 -0.46918975     1.06360887   0.00000
 -0.68853885     1.07538066   0.00000
 -0.93064908     1.08895865   0.00000
 -1.19560670     1.10419088   0.00000
 -1.48284346     1.12086989   0.00000
 -1.79128526     1.13901402   0.00000
  0.62355388     1.28308795   0.00000
  0.56157152     1.31120138   0.00000
  0.47791422     1.33428725   0.00000
  0.37290261     1.35360129   0.00000
  0.24702016     1.37015902   0.00000
  0.10056334     1.38484905   0.00000
 -0.06636284     1.39845146   0.00000
 -0.25377388     1.41161778   0.00000
 -0.46179520     1.42485485   0.00000
 -0.69057201     1.43850609   0.00000
 -0.94021789     1.45275283   0.00000
 -1.21063090     1.46764345   0.00000
 -1.50147667     1.48317591   0.00000
 -1.81221474     1.49940893   0.00000
 -2.14226417     1.51662167   0.00000
  0.64266467     1.69042765   0.00000
  0.54711642     1.72071299   0.00000
  0.43057812     1.74684227   0.00000
  0.29321711     1.76980255   0.00000
  0.13549106     1.79035821   0.00000
 -0.04227194     1.80915434   0.00000
 -0.23983321     1.82673757   0.00000
 -0.45701311     1.84354733   0.00000
 -0.69364997     1.85990933   0.00000
 -0.94956199     1.87603806   0.00000
 -1.22451914     1.89205355   0.00000
 -1.51824754     1.90801905   0.00000
 -1.83046836     1.92399435   0.00000
 -2.16095182     1.94010743   0.00000
 -2.50965782     1.95667890   0.00000
  0.60663498     2.17616654   0.00000
  0.47680723     2.20723640   0.00000
  0.32734830     2.23493356   0.00000
  0.15830685     2.25999833   0.00000
 -0.02988295     2.28299195   0.00000
 -0.23684470     2.30437344   0.00000
 -0.46224601     2.32453088   0.00000
 -0.70572016     2.34376997   0.00000
 -0.96693015     2.36231489   0.00000
 -1.24552713     2.38030336   0.00000
 -1.54121975     2.39780099   0.00000
 -1.85376275     2.41482519   0.00000
 -2.18311758     2.43139242   0.00000
 -2.52945198     2.44757457   0.00000
 -2.89320824     2.46361193   0.00000
  0.50672182     2.74130051   0.00000
  0.34382394     2.77195301   0.00000
  0.16309521     2.79992189   0.00000
 -0.03554658     2.82577229   0.00000
 -0.25163868     2.84992463   0.00000
 -0.48479388     2.87272536   0.00000
 -0.73454299     2.89446802   0.00000
 -1.00043966     2.91538197   0.00000
 -1.28197251     2.93560256   0.00000
 -1.57876414     2.95517504   0.00000
 -1.89051415     2.97405874   0.00000
 -2.21721549     2.99216575   0.00000
 -2.55906156     3.00939327   0.00000
 -2.91664473     3.02569149   0.00000
 -3.29093410     3.04115839   0.00000
  0.33587382     3.38585686   0.00000
  0.14254309     3.41518276   0.00000
 -0.06665149     3.44246206   0.00000
 -0.29182047     3.46813725   0.00000
 -0.53254522     3.49256677   0.00000
 -0.78830607     3.51604972   0.00000
 -1.05851582     3.53883297   0.00000
 -1.34249541     3.56105185   0.00000
 -1.63965840     3.58271596   0.00000
 -1.94958414     3.60371737   0.00000
 -2.27218365     3.62386864   0.00000
 -2.60763520     3.64293570   0.00000
 -2.95650170     3.66068581   0.00000
 -3.31971035     3.67693305   0.00000
 -3.69875396     3.69161851   0.00000
  0.08804392     4.10949381   0.00000
 -0.13222845     4.13686186   0.00000
 -0.36634233     4.16278906   0.00000
 -0.61455533     4.18765671   0.00000
 -0.87626657     4.21186659   0.00000